 # Bcc Mo oriented X=[100] Y=[010] Z=[001].
  
       16000  atoms
           5  atom types
 
      0.000000000000      62.000000000000  xlo xhi
      0.000000000000      62.000000000000  ylo yhi
      0.000000000000      62.000000000000  zlo zhi
 
Masses
 
            1   50.94150000             # V
            2   91.22400000             # Zr
            3   47.86700000             # Ti
            4   95.96000000             # Mo
            5   92.90638000             # Nb
 
Atoms # atomic
 
         1    1        0.000000000000       0.000000000000       0.000000000000
         2    2        1.550000000000       1.550000000000       1.550000000000
         3    3        3.100000000000       0.000000000000       0.000000000000
         4    2        4.650000000000       1.550000000000       1.550000000000
         5    4        6.200000000000       0.000000000000       0.000000000000
         6    4        7.750000000000       1.550000000000       1.550000000000
         7    2        9.300000000000       0.000000000000       0.000000000000
         8    5       10.850000000000       1.550000000000       1.550000000000
         9    2       12.400000000000       0.000000000000       0.000000000000
        10    1       13.950000000000       1.550000000000       1.550000000000
        11    1       15.500000000000       0.000000000000       0.000000000000
        12    2       17.050000000000       1.550000000000       1.550000000000
        13    2       18.600000000000       0.000000000000       0.000000000000
        14    1       20.150000000000       1.550000000000       1.550000000000
        15    1       21.700000000000       0.000000000000       0.000000000000
        16    2       23.250000000000       1.550000000000       1.550000000000
        17    1       24.800000000000       0.000000000000       0.000000000000
        18    5       26.350000000000       1.550000000000       1.550000000000
        19    2       27.900000000000       0.000000000000       0.000000000000
        20    1       29.450000000000       1.550000000000       1.550000000000
        21    2       31.000000000000       0.000000000000       0.000000000000
        22    5       32.550000000000       1.550000000000       1.550000000000
        23    5       34.100000000000       0.000000000000       0.000000000000
        24    3       35.650000000000       1.550000000000       1.550000000000
        25    5       37.200000000000       0.000000000000       0.000000000000
        26    1       38.750000000000       1.550000000000       1.550000000000
        27    1       40.300000000000       0.000000000000       0.000000000000
        28    1       41.850000000000       1.550000000000       1.550000000000
        29    3       43.400000000000       0.000000000000       0.000000000000
        30    1       44.950000000000       1.550000000000       1.550000000000
        31    2       46.500000000000       0.000000000000       0.000000000000
        32    3       48.050000000000       1.550000000000       1.550000000000
        33    3       49.600000000000       0.000000000000       0.000000000000
        34    1       51.150000000000       1.550000000000       1.550000000000
        35    2       52.700000000000       0.000000000000       0.000000000000
        36    2       54.250000000000       1.550000000000       1.550000000000
        37    2       55.800000000000       0.000000000000       0.000000000000
        38    4       57.350000000000       1.550000000000       1.550000000000
        39    3       58.900000000000       0.000000000000       0.000000000000
        40    5       60.450000000000       1.550000000000       1.550000000000
        41    5        0.000000000000       3.100000000000       0.000000000000
        42    4        1.550000000000       4.650000000000       1.550000000000
        43    5        3.100000000000       3.100000000000       0.000000000000
        44    1        4.650000000000       4.650000000000       1.550000000000
        45    4        6.200000000000       3.100000000000       0.000000000000
        46    2        7.750000000000       4.650000000000       1.550000000000
        47    2        9.300000000000       3.100000000000       0.000000000000
        48    4       10.850000000000       4.650000000000       1.550000000000
        49    2       12.400000000000       3.100000000000       0.000000000000
        50    1       13.950000000000       4.650000000000       1.550000000000
        51    1       15.500000000000       3.100000000000       0.000000000000
        52    4       17.050000000000       4.650000000000       1.550000000000
        53    1       18.600000000000       3.100000000000       0.000000000000
        54    1       20.150000000000       4.650000000000       1.550000000000
        55    5       21.700000000000       3.100000000000       0.000000000000
        56    5       23.250000000000       4.650000000000       1.550000000000
        57    2       24.800000000000       3.100000000000       0.000000000000
        58    1       26.350000000000       4.650000000000       1.550000000000
        59    4       27.900000000000       3.100000000000       0.000000000000
        60    5       29.450000000000       4.650000000000       1.550000000000
        61    1       31.000000000000       3.100000000000       0.000000000000
        62    4       32.550000000000       4.650000000000       1.550000000000
        63    2       34.100000000000       3.100000000000       0.000000000000
        64    5       35.650000000000       4.650000000000       1.550000000000
        65    4       37.200000000000       3.100000000000       0.000000000000
        66    4       38.750000000000       4.650000000000       1.550000000000
        67    5       40.300000000000       3.100000000000       0.000000000000
        68    5       41.850000000000       4.650000000000       1.550000000000
        69    3       43.400000000000       3.100000000000       0.000000000000
        70    3       44.950000000000       4.650000000000       1.550000000000
        71    3       46.500000000000       3.100000000000       0.000000000000
        72    2       48.050000000000       4.650000000000       1.550000000000
        73    3       49.600000000000       3.100000000000       0.000000000000
        74    2       51.150000000000       4.650000000000       1.550000000000
        75    4       52.700000000000       3.100000000000       0.000000000000
        76    5       54.250000000000       4.650000000000       1.550000000000
        77    3       55.800000000000       3.100000000000       0.000000000000
        78    1       57.350000000000       4.650000000000       1.550000000000
        79    2       58.900000000000       3.100000000000       0.000000000000
        80    5       60.450000000000       4.650000000000       1.550000000000
        81    3        0.000000000000       6.200000000000       0.000000000000
        82    2        1.550000000000       7.750000000000       1.550000000000
        83    1        3.100000000000       6.200000000000       0.000000000000
        84    1        4.650000000000       7.750000000000       1.550000000000
        85    2        6.200000000000       6.200000000000       0.000000000000
        86    2        7.750000000000       7.750000000000       1.550000000000
        87    5        9.300000000000       6.200000000000       0.000000000000
        88    2       10.850000000000       7.750000000000       1.550000000000
        89    5       12.400000000000       6.200000000000       0.000000000000
        90    3       13.950000000000       7.750000000000       1.550000000000
        91    3       15.500000000000       6.200000000000       0.000000000000
        92    2       17.050000000000       7.750000000000       1.550000000000
        93    4       18.600000000000       6.200000000000       0.000000000000
        94    5       20.150000000000       7.750000000000       1.550000000000
        95    3       21.700000000000       6.200000000000       0.000000000000
        96    1       23.250000000000       7.750000000000       1.550000000000
        97    4       24.800000000000       6.200000000000       0.000000000000
        98    2       26.350000000000       7.750000000000       1.550000000000
        99    3       27.900000000000       6.200000000000       0.000000000000
       100    1       29.450000000000       7.750000000000       1.550000000000
       101    5       31.000000000000       6.200000000000       0.000000000000
       102    3       32.550000000000       7.750000000000       1.550000000000
       103    3       34.100000000000       6.200000000000       0.000000000000
       104    5       35.650000000000       7.750000000000       1.550000000000
       105    1       37.200000000000       6.200000000000       0.000000000000
       106    4       38.750000000000       7.750000000000       1.550000000000
       107    3       40.300000000000       6.200000000000       0.000000000000
       108    4       41.850000000000       7.750000000000       1.550000000000
       109    4       43.400000000000       6.200000000000       0.000000000000
       110    5       44.950000000000       7.750000000000       1.550000000000
       111    2       46.500000000000       6.200000000000       0.000000000000
       112    5       48.050000000000       7.750000000000       1.550000000000
       113    5       49.600000000000       6.200000000000       0.000000000000
       114    1       51.150000000000       7.750000000000       1.550000000000
       115    5       52.700000000000       6.200000000000       0.000000000000
       116    1       54.250000000000       7.750000000000       1.550000000000
       117    4       55.800000000000       6.200000000000       0.000000000000
       118    5       57.350000000000       7.750000000000       1.550000000000
       119    3       58.900000000000       6.200000000000       0.000000000000
       120    1       60.450000000000       7.750000000000       1.550000000000
       121    4        0.000000000000       9.300000000000       0.000000000000
       122    4        1.550000000000      10.850000000000       1.550000000000
       123    5        3.100000000000       9.300000000000       0.000000000000
       124    3        4.650000000000      10.850000000000       1.550000000000
       125    3        6.200000000000       9.300000000000       0.000000000000
       126    3        7.750000000000      10.850000000000       1.550000000000
       127    2        9.300000000000       9.300000000000       0.000000000000
       128    4       10.850000000000      10.850000000000       1.550000000000
       129    3       12.400000000000       9.300000000000       0.000000000000
       130    1       13.950000000000      10.850000000000       1.550000000000
       131    1       15.500000000000       9.300000000000       0.000000000000
       132    4       17.050000000000      10.850000000000       1.550000000000
       133    2       18.600000000000       9.300000000000       0.000000000000
       134    4       20.150000000000      10.850000000000       1.550000000000
       135    3       21.700000000000       9.300000000000       0.000000000000
       136    1       23.250000000000      10.850000000000       1.550000000000
       137    5       24.800000000000       9.300000000000       0.000000000000
       138    3       26.350000000000      10.850000000000       1.550000000000
       139    2       27.900000000000       9.300000000000       0.000000000000
       140    3       29.450000000000      10.850000000000       1.550000000000
       141    5       31.000000000000       9.300000000000       0.000000000000
       142    3       32.550000000000      10.850000000000       1.550000000000
       143    1       34.100000000000       9.300000000000       0.000000000000
       144    3       35.650000000000      10.850000000000       1.550000000000
       145    3       37.200000000000       9.300000000000       0.000000000000
       146    3       38.750000000000      10.850000000000       1.550000000000
       147    3       40.300000000000       9.300000000000       0.000000000000
       148    1       41.850000000000      10.850000000000       1.550000000000
       149    4       43.400000000000       9.300000000000       0.000000000000
       150    2       44.950000000000      10.850000000000       1.550000000000
       151    1       46.500000000000       9.300000000000       0.000000000000
       152    1       48.050000000000      10.850000000000       1.550000000000
       153    1       49.600000000000       9.300000000000       0.000000000000
       154    5       51.150000000000      10.850000000000       1.550000000000
       155    5       52.700000000000       9.300000000000       0.000000000000
       156    1       54.250000000000      10.850000000000       1.550000000000
       157    4       55.800000000000       9.300000000000       0.000000000000
       158    2       57.350000000000      10.850000000000       1.550000000000
       159    1       58.900000000000       9.300000000000       0.000000000000
       160    5       60.450000000000      10.850000000000       1.550000000000
       161    3        0.000000000000      12.400000000000       0.000000000000
       162    3        1.550000000000      13.950000000000       1.550000000000
       163    3        3.100000000000      12.400000000000       0.000000000000
       164    1        4.650000000000      13.950000000000       1.550000000000
       165    1        6.200000000000      12.400000000000       0.000000000000
       166    5        7.750000000000      13.950000000000       1.550000000000
       167    5        9.300000000000      12.400000000000       0.000000000000
       168    1       10.850000000000      13.950000000000       1.550000000000
       169    1       12.400000000000      12.400000000000       0.000000000000
       170    5       13.950000000000      13.950000000000       1.550000000000
       171    1       15.500000000000      12.400000000000       0.000000000000
       172    4       17.050000000000      13.950000000000       1.550000000000
       173    2       18.600000000000      12.400000000000       0.000000000000
       174    5       20.150000000000      13.950000000000       1.550000000000
       175    1       21.700000000000      12.400000000000       0.000000000000
       176    1       23.250000000000      13.950000000000       1.550000000000
       177    4       24.800000000000      12.400000000000       0.000000000000
       178    1       26.350000000000      13.950000000000       1.550000000000
       179    4       27.900000000000      12.400000000000       0.000000000000
       180    1       29.450000000000      13.950000000000       1.550000000000
       181    2       31.000000000000      12.400000000000       0.000000000000
       182    1       32.550000000000      13.950000000000       1.550000000000
       183    2       34.100000000000      12.400000000000       0.000000000000
       184    1       35.650000000000      13.950000000000       1.550000000000
       185    5       37.200000000000      12.400000000000       0.000000000000
       186    5       38.750000000000      13.950000000000       1.550000000000
       187    1       40.300000000000      12.400000000000       0.000000000000
       188    5       41.850000000000      13.950000000000       1.550000000000
       189    4       43.400000000000      12.400000000000       0.000000000000
       190    2       44.950000000000      13.950000000000       1.550000000000
       191    4       46.500000000000      12.400000000000       0.000000000000
       192    2       48.050000000000      13.950000000000       1.550000000000
       193    3       49.600000000000      12.400000000000       0.000000000000
       194    2       51.150000000000      13.950000000000       1.550000000000
       195    5       52.700000000000      12.400000000000       0.000000000000
       196    1       54.250000000000      13.950000000000       1.550000000000
       197    1       55.800000000000      12.400000000000       0.000000000000
       198    5       57.350000000000      13.950000000000       1.550000000000
       199    5       58.900000000000      12.400000000000       0.000000000000
       200    3       60.450000000000      13.950000000000       1.550000000000
       201    5        0.000000000000      15.500000000000       0.000000000000
       202    5        1.550000000000      17.050000000000       1.550000000000
       203    3        3.100000000000      15.500000000000       0.000000000000
       204    2        4.650000000000      17.050000000000       1.550000000000
       205    5        6.200000000000      15.500000000000       0.000000000000
       206    1        7.750000000000      17.050000000000       1.550000000000
       207    2        9.300000000000      15.500000000000       0.000000000000
       208    2       10.850000000000      17.050000000000       1.550000000000
       209    3       12.400000000000      15.500000000000       0.000000000000
       210    5       13.950000000000      17.050000000000       1.550000000000
       211    3       15.500000000000      15.500000000000       0.000000000000
       212    3       17.050000000000      17.050000000000       1.550000000000
       213    5       18.600000000000      15.500000000000       0.000000000000
       214    1       20.150000000000      17.050000000000       1.550000000000
       215    1       21.700000000000      15.500000000000       0.000000000000
       216    1       23.250000000000      17.050000000000       1.550000000000
       217    1       24.800000000000      15.500000000000       0.000000000000
       218    1       26.350000000000      17.050000000000       1.550000000000
       219    3       27.900000000000      15.500000000000       0.000000000000
       220    2       29.450000000000      17.050000000000       1.550000000000
       221    5       31.000000000000      15.500000000000       0.000000000000
       222    2       32.550000000000      17.050000000000       1.550000000000
       223    5       34.100000000000      15.500000000000       0.000000000000
       224    2       35.650000000000      17.050000000000       1.550000000000
       225    3       37.200000000000      15.500000000000       0.000000000000
       226    2       38.750000000000      17.050000000000       1.550000000000
       227    2       40.300000000000      15.500000000000       0.000000000000
       228    2       41.850000000000      17.050000000000       1.550000000000
       229    2       43.400000000000      15.500000000000       0.000000000000
       230    2       44.950000000000      17.050000000000       1.550000000000
       231    2       46.500000000000      15.500000000000       0.000000000000
       232    2       48.050000000000      17.050000000000       1.550000000000
       233    5       49.600000000000      15.500000000000       0.000000000000
       234    5       51.150000000000      17.050000000000       1.550000000000
       235    5       52.700000000000      15.500000000000       0.000000000000
       236    2       54.250000000000      17.050000000000       1.550000000000
       237    5       55.800000000000      15.500000000000       0.000000000000
       238    2       57.350000000000      17.050000000000       1.550000000000
       239    2       58.900000000000      15.500000000000       0.000000000000
       240    5       60.450000000000      17.050000000000       1.550000000000
       241    2        0.000000000000      18.600000000000       0.000000000000
       242    2        1.550000000000      20.150000000000       1.550000000000
       243    1        3.100000000000      18.600000000000       0.000000000000
       244    3        4.650000000000      20.150000000000       1.550000000000
       245    2        6.200000000000      18.600000000000       0.000000000000
       246    5        7.750000000000      20.150000000000       1.550000000000
       247    3        9.300000000000      18.600000000000       0.000000000000
       248    3       10.850000000000      20.150000000000       1.550000000000
       249    2       12.400000000000      18.600000000000       0.000000000000
       250    2       13.950000000000      20.150000000000       1.550000000000
       251    3       15.500000000000      18.600000000000       0.000000000000
       252    1       17.050000000000      20.150000000000       1.550000000000
       253    3       18.600000000000      18.600000000000       0.000000000000
       254    5       20.150000000000      20.150000000000       1.550000000000
       255    1       21.700000000000      18.600000000000       0.000000000000
       256    2       23.250000000000      20.150000000000       1.550000000000
       257    5       24.800000000000      18.600000000000       0.000000000000
       258    5       26.350000000000      20.150000000000       1.550000000000
       259    4       27.900000000000      18.600000000000       0.000000000000
       260    1       29.450000000000      20.150000000000       1.550000000000
       261    5       31.000000000000      18.600000000000       0.000000000000
       262    5       32.550000000000      20.150000000000       1.550000000000
       263    1       34.100000000000      18.600000000000       0.000000000000
       264    4       35.650000000000      20.150000000000       1.550000000000
       265    4       37.200000000000      18.600000000000       0.000000000000
       266    1       38.750000000000      20.150000000000       1.550000000000
       267    2       40.300000000000      18.600000000000       0.000000000000
       268    2       41.850000000000      20.150000000000       1.550000000000
       269    4       43.400000000000      18.600000000000       0.000000000000
       270    5       44.950000000000      20.150000000000       1.550000000000
       271    1       46.500000000000      18.600000000000       0.000000000000
       272    5       48.050000000000      20.150000000000       1.550000000000
       273    1       49.600000000000      18.600000000000       0.000000000000
       274    2       51.150000000000      20.150000000000       1.550000000000
       275    4       52.700000000000      18.600000000000       0.000000000000
       276    2       54.250000000000      20.150000000000       1.550000000000
       277    1       55.800000000000      18.600000000000       0.000000000000
       278    2       57.350000000000      20.150000000000       1.550000000000
       279    1       58.900000000000      18.600000000000       0.000000000000
       280    3       60.450000000000      20.150000000000       1.550000000000
       281    2        0.000000000000      21.700000000000       0.000000000000
       282    2        1.550000000000      23.250000000000       1.550000000000
       283    2        3.100000000000      21.700000000000       0.000000000000
       284    4        4.650000000000      23.250000000000       1.550000000000
       285    4        6.200000000000      21.700000000000       0.000000000000
       286    5        7.750000000000      23.250000000000       1.550000000000
       287    4        9.300000000000      21.700000000000       0.000000000000
       288    2       10.850000000000      23.250000000000       1.550000000000
       289    3       12.400000000000      21.700000000000       0.000000000000
       290    4       13.950000000000      23.250000000000       1.550000000000
       291    5       15.500000000000      21.700000000000       0.000000000000
       292    5       17.050000000000      23.250000000000       1.550000000000
       293    5       18.600000000000      21.700000000000       0.000000000000
       294    5       20.150000000000      23.250000000000       1.550000000000
       295    4       21.700000000000      21.700000000000       0.000000000000
       296    3       23.250000000000      23.250000000000       1.550000000000
       297    3       24.800000000000      21.700000000000       0.000000000000
       298    5       26.350000000000      23.250000000000       1.550000000000
       299    5       27.900000000000      21.700000000000       0.000000000000
       300    2       29.450000000000      23.250000000000       1.550000000000
       301    4       31.000000000000      21.700000000000       0.000000000000
       302    3       32.550000000000      23.250000000000       1.550000000000
       303    4       34.100000000000      21.700000000000       0.000000000000
       304    5       35.650000000000      23.250000000000       1.550000000000
       305    1       37.200000000000      21.700000000000       0.000000000000
       306    3       38.750000000000      23.250000000000       1.550000000000
       307    3       40.300000000000      21.700000000000       0.000000000000
       308    3       41.850000000000      23.250000000000       1.550000000000
       309    3       43.400000000000      21.700000000000       0.000000000000
       310    5       44.950000000000      23.250000000000       1.550000000000
       311    4       46.500000000000      21.700000000000       0.000000000000
       312    5       48.050000000000      23.250000000000       1.550000000000
       313    5       49.600000000000      21.700000000000       0.000000000000
       314    5       51.150000000000      23.250000000000       1.550000000000
       315    1       52.700000000000      21.700000000000       0.000000000000
       316    4       54.250000000000      23.250000000000       1.550000000000
       317    1       55.800000000000      21.700000000000       0.000000000000
       318    1       57.350000000000      23.250000000000       1.550000000000
       319    3       58.900000000000      21.700000000000       0.000000000000
       320    3       60.450000000000      23.250000000000       1.550000000000
       321    2        0.000000000000      24.800000000000       0.000000000000
       322    3        1.550000000000      26.350000000000       1.550000000000
       323    3        3.100000000000      24.800000000000       0.000000000000
       324    4        4.650000000000      26.350000000000       1.550000000000
       325    5        6.200000000000      24.800000000000       0.000000000000
       326    5        7.750000000000      26.350000000000       1.550000000000
       327    5        9.300000000000      24.800000000000       0.000000000000
       328    5       10.850000000000      26.350000000000       1.550000000000
       329    4       12.400000000000      24.800000000000       0.000000000000
       330    2       13.950000000000      26.350000000000       1.550000000000
       331    2       15.500000000000      24.800000000000       0.000000000000
       332    5       17.050000000000      26.350000000000       1.550000000000
       333    2       18.600000000000      24.800000000000       0.000000000000
       334    1       20.150000000000      26.350000000000       1.550000000000
       335    2       21.700000000000      24.800000000000       0.000000000000
       336    2       23.250000000000      26.350000000000       1.550000000000
       337    1       24.800000000000      24.800000000000       0.000000000000
       338    2       26.350000000000      26.350000000000       1.550000000000
       339    3       27.900000000000      24.800000000000       0.000000000000
       340    5       29.450000000000      26.350000000000       1.550000000000
       341    2       31.000000000000      24.800000000000       0.000000000000
       342    1       32.550000000000      26.350000000000       1.550000000000
       343    2       34.100000000000      24.800000000000       0.000000000000
       344    2       35.650000000000      26.350000000000       1.550000000000
       345    3       37.200000000000      24.800000000000       0.000000000000
       346    3       38.750000000000      26.350000000000       1.550000000000
       347    1       40.300000000000      24.800000000000       0.000000000000
       348    5       41.850000000000      26.350000000000       1.550000000000
       349    5       43.400000000000      24.800000000000       0.000000000000
       350    1       44.950000000000      26.350000000000       1.550000000000
       351    2       46.500000000000      24.800000000000       0.000000000000
       352    2       48.050000000000      26.350000000000       1.550000000000
       353    2       49.600000000000      24.800000000000       0.000000000000
       354    2       51.150000000000      26.350000000000       1.550000000000
       355    3       52.700000000000      24.800000000000       0.000000000000
       356    1       54.250000000000      26.350000000000       1.550000000000
       357    2       55.800000000000      24.800000000000       0.000000000000
       358    3       57.350000000000      26.350000000000       1.550000000000
       359    2       58.900000000000      24.800000000000       0.000000000000
       360    2       60.450000000000      26.350000000000       1.550000000000
       361    1        0.000000000000      27.900000000000       0.000000000000
       362    1        1.550000000000      29.450000000000       1.550000000000
       363    4        3.100000000000      27.900000000000       0.000000000000